LIGGGHTS (Version LIGGGHTS-PUBLIC 3.8.0, compiled 2025-08-07-13:49:11 by shoot, git commit 3d5c00f20519e6bb6eb6756f51f1ad36564e649d)



